# LAMMPS data file written by OVITO Basic 3.7.11
8192 atoms
4 atom types
0.0 136.33869762 xlo xhi
5.15 162.59 ylo yhi
0.0 33.6 zlo zhi

Masses

1 48
2 48
3 48
4 48

Atoms  # full

1	1	1	0	1.420281039	6.15	5.1
2	1	1	0	4.2605843	6.15	5.1
3	1	1	0	9.941449642	6.15	5.1
4	1	1	0	12.7817529	6.15	5.1
5	1	1	0	18.46261824	6.15	5.1
6	1	1	0	21.3029215	6.15	5.1
7	1	1	0	26.98378684	6.15	5.1
8	1	1	0	29.8240901	6.15	5.1
9	1	1	0	35.50495544	6.15	5.1
10	1	1	0	38.3452587	6.15	5.1
11	1	1	0	44.02612404	6.15	5.1
12	1	1	0	46.8664273	6.15	5.1
13	1	1	0	52.54729264	6.15	5.1
14	1	1	0	55.3875959	6.15	5.1
15	1	1	0	61.06846124	6.15	5.1
16	1	1	0	63.9087645	6.15	5.1
17	1	1	0	69.58962985	6.15	5.1
18	1	1	0	72.42993311	6.15	5.1
19	1	1	0	78.11079845	6.15	5.1
20	1	1	0	80.95110171	6.15	5.1
21	1	1	0	86.63196705	6.15	5.1
22	1	1	0	89.47227031	6.15	5.1
23	1	1	0	95.15313565	6.15	5.1
24	1	1	0	97.99343891	6.15	5.1
25	1	1	0	103.6743043	6.15	5.1
26	1	1	0	106.5146075	6.15	5.1
27	1	1	0	112.1954729	6.15	5.1
28	1	1	0	115.0357761	6.15	5.1
29	1	1	0	120.7166415	6.15	5.1
30	1	1	0	123.5569447	6.15	5.1
31	1	1	0	129.2378101	6.15	5.1
32	1	1	0	132.0781133	6.15	5.1
33	1	1	0	0	8.61	5.1
34	1	1	0	5.680865339	8.61	5.1
35	1	1	0	8.521168602	8.61	5.1
36	1	1	0	14.20203394	8.61	5.1
37	1	1	0	17.0423372	8.61	5.1
38	1	1	0	22.72320254	8.61	5.1
39	1	1	0	25.5635058	8.61	5.1
40	1	1	0	31.24437114	8.61	5.1
41	1	1	0	34.0846744	8.61	5.1
42	1	1	0	39.76553974	8.61	5.1
43	1	1	0	42.605843	8.61	5.1
44	1	1	0	48.28670834	8.61	5.1
45	1	1	0	51.1270116	8.61	5.1
46	1	1	0	56.80787694	8.61	5.1
47	1	1	0	59.6481802	8.61	5.1
48	1	1	0	65.32904554	8.61	5.1
49	1	1	0	68.16934881	8.61	5.1
50	1	1	0	73.85021415	8.61	5.1
51	1	1	0	76.69051741	8.61	5.1
52	1	1	0	82.37138275	8.61	5.1
53	1	1	0	85.21168601	8.61	5.1
54	1	1	0	90.89255135	8.61	5.1
55	1	1	0	93.73285461	8.61	5.1
56	1	1	0	99.41371995	8.61	5.1
57	1	1	0	102.2540232	8.61	5.1
58	1	1	0	107.9348886	8.61	5.1
59	1	1	0	110.7751918	8.61	5.1
60	1	1	0	116.4560572	8.61	5.1
61	1	1	0	119.2963604	8.61	5.1
62	1	1	0	124.9772258	8.61	5.1
63	1	1	0	127.817529	8.61	5.1
64	1	1	0	133.4983944	8.61	5.1
65	1	1	0	1.420281039	11.07	5.1
66	1	1	0	4.2605843	11.07	5.1
67	1	1	0	9.941449642	11.07	5.1
68	1	1	0	12.7817529	11.07	5.1
69	1	1	0	18.46261824	11.07	5.1
70	1	1	0	21.3029215	11.07	5.1
71	1	1	0	26.98378684	11.07	5.1
72	1	1	0	29.8240901	11.07	5.1
73	1	1	0	35.50495544	11.07	5.1
74	1	1	0	38.3452587	11.07	5.1
75	1	1	0	44.02612404	11.07	5.1
76	1	1	0	46.8664273	11.07	5.1
77	1	1	0	52.54729264	11.07	5.1
78	1	1	0	55.3875959	11.07	5.1
79	1	1	0	61.06846124	11.07	5.1
80	1	1	0	63.9087645	11.07	5.1
81	1	1	0	69.58962985	11.07	5.1
82	1	1	0	72.42993311	11.07	5.1
83	1	1	0	78.11079845	11.07	5.1
84	1	1	0	80.95110171	11.07	5.1
85	1	1	0	86.63196705	11.07	5.1
86	1	1	0	89.47227031	11.07	5.1
87	1	1	0	95.15313565	11.07	5.1
88	1	1	0	97.99343891	11.07	5.1
89	1	1	0	103.6743043	11.07	5.1
90	1	1	0	106.5146075	11.07	5.1
91	1	1	0	112.1954729	11.07	5.1
92	1	1	0	115.0357761	11.07	5.1
93	1	1	0	120.7166415	11.07	5.1
94	1	1	0	123.5569447	11.07	5.1
95	1	1	0	129.2378101	11.07	5.1
96	1	1	0	132.0781133	11.07	5.1
97	1	1	0	0	13.53	5.1
98	1	1	0	5.680865339	13.53	5.1
99	1	1	0	8.521168602	13.53	5.1
100	1	1	0	14.20203394	13.53	5.1
101	1	1	0	17.0423372	13.53	5.1
102	1	1	0	22.72320254	13.53	5.1
103	1	1	0	25.5635058	13.53	5.1
104	1	1	0	31.24437114	13.53	5.1
105	1	1	0	34.0846744	13.53	5.1
106	1	1	0	39.76553974	13.53	5.1
107	1	1	0	42.605843	13.53	5.1
108	1	1	0	48.28670834	13.53	5.1
109	1	1	0	51.1270116	13.53	5.1
110	1	1	0	56.80787694	13.53	5.1
111	1	1	0	59.6481802	13.53	5.1
112	1	1	0	65.32904554	13.53	5.1
113	1	1	0	68.16934881	13.53	5.1
114	1	1	0	73.85021415	13.53	5.1
115	1	1	0	76.69051741	13.53	5.1
116	1	1	0	82.37138275	13.53	5.1
117	1	1	0	85.21168601	13.53	5.1
118	1	1	0	90.89255135	13.53	5.1
119	1	1	0	93.73285461	13.53	5.1
120	1	1	0	99.41371995	13.53	5.1
121	1	1	0	102.2540232	13.53	5.1
122	1	1	0	107.9348886	13.53	5.1
123	1	1	0	110.7751918	13.53	5.1
124	1	1	0	116.4560572	13.53	5.1
125	1	1	0	119.2963604	13.53	5.1
126	1	1	0	124.9772258	13.53	5.1
127	1	1	0	127.817529	13.53	5.1
128	1	1	0	133.4983944	13.53	5.1
129	1	1	0	1.420281039	15.99	5.1
130	1	1	0	4.2605843	15.99	5.1
131	1	1	0	9.941449642	15.99	5.1
132	1	1	0	12.7817529	15.99	5.1
133	1	1	0	18.46261824	15.99	5.1
134	1	1	0	21.3029215	15.99	5.1
135	1	1	0	26.98378684	15.99	5.1
136	1	1	0	29.8240901	15.99	5.1
137	1	1	0	35.50495544	15.99	5.1
138	1	1	0	38.3452587	15.99	5.1
139	1	1	0	44.02612404	15.99	5.1
140	1	1	0	46.8664273	15.99	5.1
141	1	1	0	52.54729264	15.99	5.1
142	1	1	0	55.3875959	15.99	5.1
143	1	1	0	61.06846124	15.99	5.1
144	1	1	0	63.9087645	15.99	5.1
145	1	1	0	69.58962985	15.99	5.1
146	1	1	0	72.42993311	15.99	5.1
147	1	1	0	78.11079845	15.99	5.1
148	1	1	0	80.95110171	15.99	5.1
149	1	1	0	86.63196705	15.99	5.1
150	1	1	0	89.47227031	15.99	5.1
151	1	1	0	95.15313565	15.99	5.1
152	1	1	0	97.99343891	15.99	5.1
153	1	1	0	103.6743043	15.99	5.1
154	1	1	0	106.5146075	15.99	5.1
155	1	1	0	112.1954729	15.99	5.1
156	1	1	0	115.0357761	15.99	5.1
157	1	1	0	120.7166415	15.99	5.1
158	1	1	0	123.5569447	15.99	5.1
159	1	1	0	129.2378101	15.99	5.1
160	1	1	0	132.0781133	15.99	5.1
161	1	1	0	0	18.45	5.1
162	1	1	0	5.680865339	18.45	5.1
163	1	1	0	8.521168602	18.45	5.1
164	1	1	0	14.20203394	18.45	5.1
165	1	1	0	17.0423372	18.45	5.1
166	1	1	0	22.72320254	18.45	5.1
167	1	1	0	25.5635058	18.45	5.1
168	1	1	0	31.24437114	18.45	5.1
169	1	1	0	34.0846744	18.45	5.1
170	1	1	0	39.76553974	18.45	5.1
171	1	1	0	42.605843	18.45	5.1
172	1	1	0	48.28670834	18.45	5.1
173	1	1	0	51.1270116	18.45	5.1
174	1	1	0	56.80787694	18.45	5.1
175	1	1	0	59.6481802	18.45	5.1
176	1	1	0	65.32904554	18.45	5.1
177	1	1	0	68.16934881	18.45	5.1
178	1	1	0	73.85021415	18.45	5.1
179	1	1	0	76.69051741	18.45	5.1
180	1	1	0	82.37138275	18.45	5.1
181	1	1	0	85.21168601	18.45	5.1
182	1	1	0	90.89255135	18.45	5.1
183	1	1	0	93.73285461	18.45	5.1
184	1	1	0	99.41371995	18.45	5.1
185	1	1	0	102.2540232	18.45	5.1
186	1	1	0	107.9348886	18.45	5.1
187	1	1	0	110.7751918	18.45	5.1
188	1	1	0	116.4560572	18.45	5.1
189	1	1	0	119.2963604	18.45	5.1
190	1	1	0	124.9772258	18.45	5.1
191	1	1	0	127.817529	18.45	5.1
192	1	1	0	133.4983944	18.45	5.1
193	1	1	0	1.420281039	20.91	5.1
194	1	1	0	4.2605843	20.91	5.1
195	1	1	0	9.941449642	20.91	5.1
196	1	1	0	12.7817529	20.91	5.1
197	1	1	0	18.46261824	20.91	5.1
198	1	1	0	21.3029215	20.91	5.1
199	1	1	0	26.98378684	20.91	5.1
200	1	1	0	29.8240901	20.91	5.1
201	1	1	0	35.50495544	20.91	5.1
202	1	1	0	38.3452587	20.91	5.1
203	1	1	0	44.02612404	20.91	5.1
204	1	1	0	46.8664273	20.91	5.1
205	1	1	0	52.54729264	20.91	5.1
206	1	1	0	55.3875959	20.91	5.1
207	1	1	0	61.06846124	20.91	5.1
208	1	1	0	63.9087645	20.91	5.1
209	1	1	0	69.58962985	20.91	5.1
210	1	1	0	72.42993311	20.91	5.1
211	1	1	0	78.11079845	20.91	5.1
212	1	1	0	80.95110171	20.91	5.1
213	1	1	0	86.63196705	20.91	5.1
214	1	1	0	89.47227031	20.91	5.1
215	1	1	0	95.15313565	20.91	5.1
216	1	1	0	97.99343891	20.91	5.1
217	1	1	0	103.6743043	20.91	5.1
218	1	1	0	106.5146075	20.91	5.1
219	1	1	0	112.1954729	20.91	5.1
220	1	1	0	115.0357761	20.91	5.1
221	1	1	0	120.7166415	20.91	5.1
222	1	1	0	123.5569447	20.91	5.1
223	1	1	0	129.2378101	20.91	5.1
224	1	1	0	132.0781133	20.91	5.1
225	1	1	0	0	23.37	5.1
226	1	1	0	5.680865339	23.37	5.1
227	1	1	0	8.521168602	23.37	5.1
228	1	1	0	14.20203394	23.37	5.1
229	1	1	0	17.0423372	23.37	5.1
230	1	1	0	22.72320254	23.37	5.1
231	1	1	0	25.5635058	23.37	5.1
232	1	1	0	31.24437114	23.37	5.1
233	1	1	0	34.0846744	23.37	5.1
234	1	1	0	39.76553974	23.37	5.1
235	1	1	0	42.605843	23.37	5.1
236	1	1	0	48.28670834	23.37	5.1
237	1	1	0	51.1270116	23.37	5.1
238	1	1	0	56.80787694	23.37	5.1
239	1	1	0	59.6481802	23.37	5.1
240	1	1	0	65.32904554	23.37	5.1
241	1	1	0	68.16934881	23.37	5.1
242	1	1	0	73.85021415	23.37	5.1
243	1	1	0	76.69051741	23.37	5.1
244	1	1	0	82.37138275	23.37	5.1
245	1	1	0	85.21168601	23.37	5.1
246	1	1	0	90.89255135	23.37	5.1
247	1	1	0	93.73285461	23.37	5.1
248	1	1	0	99.41371995	23.37	5.1
249	1	1	0	102.2540232	23.37	5.1
250	1	1	0	107.9348886	23.37	5.1
251	1	1	0	110.7751918	23.37	5.1
252	1	1	0	116.4560572	23.37	5.1
253	1	1	0	119.2963604	23.37	5.1
254	1	1	0	124.9772258	23.37	5.1
255	1	1	0	127.817529	23.37	5.1
256	1	1	0	133.4983944	23.37	5.1
257	1	1	0	1.420281039	25.83	5.1
258	1	1	0	4.2605843	25.83	5.1
259	1	1	0	9.941449642	25.83	5.1
260	1	1	0	12.7817529	25.83	5.1
261	1	1	0	18.46261824	25.83	5.1
262	1	1	0	21.3029215	25.83	5.1
263	1	1	0	26.98378684	25.83	5.1
264	1	1	0	29.8240901	25.83	5.1
265	1	1	0	35.50495544	25.83	5.1
266	1	1	0	38.3452587	25.83	5.1
267	1	1	0	44.02612404	25.83	5.1
268	1	1	0	46.8664273	25.83	5.1
269	1	1	0	52.54729264	25.83	5.1
270	1	1	0	55.3875959	25.83	5.1
271	1	1	0	61.06846124	25.83	5.1
272	1	1	0	63.9087645	25.83	5.1
273	1	1	0	69.58962985	25.83	5.1
274	1	1	0	72.42993311	25.83	5.1
275	1	1	0	78.11079845	25.83	5.1
276	1	1	0	80.95110171	25.83	5.1
277	1	1	0	86.63196705	25.83	5.1
278	1	1	0	89.47227031	25.83	5.1
279	1	1	0	95.15313565	25.83	5.1
280	1	1	0	97.99343891	25.83	5.1
281	1	1	0	103.6743043	25.83	5.1
282	1	1	0	106.5146075	25.83	5.1
283	1	1	0	112.1954729	25.83	5.1
284	1	1	0	115.0357761	25.83	5.1
285	1	1	0	120.7166415	25.83	5.1
286	1	1	0	123.5569447	25.83	5.1
287	1	1	0	129.2378101	25.83	5.1
288	1	1	0	132.0781133	25.83	5.1
289	1	1	0	0	28.29	5.1
290	1	1	0	5.680865339	28.29	5.1
291	1	1	0	8.521168602	28.29	5.1
292	1	1	0	14.20203394	28.29	5.1
293	1	1	0	17.0423372	28.29	5.1
294	1	1	0	22.72320254	28.29	5.1
295	1	1	0	25.5635058	28.29	5.1
296	1	1	0	31.24437114	28.29	5.1
297	1	1	0	34.0846744	28.29	5.1
298	1	1	0	39.76553974	28.29	5.1
299	1	1	0	42.605843	28.29	5.1
300	1	1	0	48.28670834	28.29	5.1
301	1	1	0	51.1270116	28.29	5.1
302	1	1	0	56.80787694	28.29	5.1
303	1	1	0	59.6481802	28.29	5.1
304	1	1	0	65.32904554	28.29	5.1
305	1	1	0	68.16934881	28.29	5.1
306	1	1	0	73.85021415	28.29	5.1
307	1	1	0	76.69051741	28.29	5.1
308	1	1	0	82.37138275	28.29	5.1
309	1	1	0	85.21168601	28.29	5.1
310	1	1	0	90.89255135	28.29	5.1
311	1	1	0	93.73285461	28.29	5.1
312	1	1	0	99.41371995	28.29	5.1
313	1	1	0	102.2540232	28.29	5.1
314	1	1	0	107.9348886	28.29	5.1
315	1	1	0	110.7751918	28.29	5.1
316	1	1	0	116.4560572	28.29	5.1
317	1	1	0	119.2963604	28.29	5.1
318	1	1	0	124.9772258	28.29	5.1
319	1	1	0	127.817529	28.29	5.1
320	1	1	0	133.4983944	28.29	5.1
321	1	1	0	1.420281039	30.75	5.1
322	1	1	0	4.2605843	30.75	5.1
323	1	1	0	9.941449642	30.75	5.1
324	1	1	0	12.7817529	30.75	5.1
325	1	1	0	18.46261824	30.75	5.1
326	1	1	0	21.3029215	30.75	5.1
327	1	1	0	26.98378684	30.75	5.1
328	1	1	0	29.8240901	30.75	5.1
329	1	1	0	35.50495544	30.75	5.1
330	1	1	0	38.3452587	30.75	5.1
331	1	1	0	44.02612404	30.75	5.1
332	1	1	0	46.8664273	30.75	5.1
333	1	1	0	52.54729264	30.75	5.1
334	1	1	0	55.3875959	30.75	5.1
335	1	1	0	61.06846124	30.75	5.1
336	1	1	0	63.9087645	30.75	5.1
337	1	1	0	69.58962985	30.75	5.1
338	1	1	0	72.42993311	30.75	5.1
339	1	1	0	78.11079845	30.75	5.1
340	1	1	0	80.95110171	30.75	5.1
341	1	1	0	86.63196705	30.75	5.1
342	1	1	0	89.47227031	30.75	5.1
343	1	1	0	95.15313565	30.75	5.1
344	1	1	0	97.99343891	30.75	5.1
345	1	1	0	103.6743043	30.75	5.1
346	1	1	0	106.5146075	30.75	5.1
347	1	1	0	112.1954729	30.75	5.1
348	1	1	0	115.0357761	30.75	5.1
349	1	1	0	120.7166415	30.75	5.1
350	1	1	0	123.5569447	30.75	5.1
351	1	1	0	129.2378101	30.75	5.1
352	1	1	0	132.0781133	30.75	5.1
353	1	1	0	0	33.21	5.1
354	1	1	0	5.680865339	33.21	5.1
355	1	1	0	8.521168602	33.21	5.1
356	1	1	0	14.20203394	33.21	5.1
357	1	1	0	17.0423372	33.21	5.1
358	1	1	0	22.72320254	33.21	5.1
359	1	1	0	25.5635058	33.21	5.1
360	1	1	0	31.24437114	33.21	5.1
361	1	1	0	34.0846744	33.21	5.1
362	1	1	0	39.76553974	33.21	5.1
363	1	1	0	42.605843	33.21	5.1
364	1	1	0	48.28670834	33.21	5.1
365	1	1	0	51.1270116	33.21	5.1
366	1	1	0	56.80787694	33.21	5.1
367	1	1	0	59.6481802	33.21	5.1
368	1	1	0	65.32904554	33.21	5.1
369	1	1	0	68.16934881	33.21	5.1
370	1	1	0	73.85021415	33.21	5.1
371	1	1	0	76.69051741	33.21	5.1
372	1	1	0	82.37138275	33.21	5.1
373	1	1	0	85.21168601	33.21	5.1
374	1	1	0	90.89255135	33.21	5.1
375	1	1	0	93.73285461	33.21	5.1
376	1	1	0	99.41371995	33.21	5.1
377	1	1	0	102.2540232	33.21	5.1
378	1	1	0	107.9348886	33.21	5.1
379	1	1	0	110.7751918	33.21	5.1
380	1	1	0	116.4560572	33.21	5.1
381	1	1	0	119.2963604	33.21	5.1
382	1	1	0	124.9772258	33.21	5.1
383	1	1	0	127.817529	33.21	5.1
384	1	1	0	133.4983944	33.21	5.1
385	1	1	0	1.420281039	35.67	5.1
386	1	1	0	4.2605843	35.67	5.1
387	1	1	0	9.941449642	35.67	5.1
388	1	1	0	12.7817529	35.67	5.1
389	1	1	0	18.46261824	35.67	5.1
390	1	1	0	21.3029215	35.67	5.1
391	1	1	0	26.98378684	35.67	5.1
392	1	1	0	29.8240901	35.67	5.1
393	1	1	0	35.50495544	35.67	5.1
394	1	1	0	38.3452587	35.67	5.1
395	1	1	0	44.02612404	35.67	5.1
396	1	1	0	46.8664273	35.67	5.1
397	1	1	0	52.54729264	35.67	5.1
398	1	1	0	55.3875959	35.67	5.1
399	1	1	0	61.06846124	35.67	5.1
400	1	1	0	63.9087645	35.67	5.1
401	1	1	0	69.58962985	35.67	5.1
402	1	1	0	72.42993311	35.67	5.1
403	1	1	0	78.11079845	35.67	5.1
404	1	1	0	80.95110171	35.67	5.1
405	1	1	0	86.63196705	35.67	5.1
406	1	1	0	89.47227031	35.67	5.1
407	1	1	0	95.15313565	35.67	5.1
408	1	1	0	97.99343891	35.67	5.1
409	1	1	0	103.6743043	35.67	5.1
410	1	1	0	106.5146075	35.67	5.1
411	1	1	0	112.1954729	35.67	5.1
412	1	1	0	115.0357761	35.67	5.1
413	1	1	0	120.7166415	35.67	5.1
414	1	1	0	123.5569447	35.67	5.1
415	1	1	0	129.2378101	35.67	5.1
416	1	1	0	132.0781133	35.67	5.1
417	1	1	0	0	38.13	5.1
418	1	1	0	5.680865339	38.13	5.1
419	1	1	0	8.521168602	38.13	5.1
420	1	1	0	14.20203394	38.13	5.1
421	1	1	0	17.0423372	38.13	5.1
422	1	1	0	22.72320254	38.13	5.1
423	1	1	0	25.5635058	38.13	5.1
424	1	1	0	31.24437114	38.13	5.1
425	1	1	0	34.0846744	38.13	5.1
426	1	1	0	39.76553974	38.13	5.1
427	1	1	0	42.605843	38.13	5.1
428	1	1	0	48.28670834	38.13	5.1
429	1	1	0	51.1270116	38.13	5.1
430	1	1	0	56.80787694	38.13	5.1
431	1	1	0	59.6481802	38.13	5.1
432	1	1	0	65.32904554	38.13	5.1
433	1	1	0	68.16934881	38.13	5.1
434	1	1	0	73.85021415	38.13	5.1
435	1	1	0	76.69051741	38.13	5.1
436	1	1	0	82.37138275	38.13	5.1
437	1	1	0	85.21168601	38.13	5.1
438	1	1	0	90.89255135	38.13	5.1
439	1	1	0	93.73285461	38.13	5.1
440	1	1	0	99.41371995	38.13	5.1
441	1	1	0	102.2540232	38.13	5.1
442	1	1	0	107.9348886	38.13	5.1
443	1	1	0	110.7751918	38.13	5.1
444	1	1	0	116.4560572	38.13	5.1
445	1	1	0	119.2963604	38.13	5.1
446	1	1	0	124.9772258	38.13	5.1
447	1	1	0	127.817529	38.13	5.1
448	1	1	0	133.4983944	38.13	5.1
449	1	1	0	1.420281039	40.59	5.1
450	1	1	0	4.2605843	40.59	5.1
451	1	1	0	9.941449642	40.59	5.1
452	1	1	0	12.7817529	40.59	5.1
453	1	1	0	18.46261824	40.59	5.1
454	1	1	0	21.3029215	40.59	5.1
455	1	1	0	26.98378684	40.59	5.1
456	1	1	0	29.8240901	40.59	5.1
457	1	1	0	35.50495544	40.59	5.1
458	1	1	0	38.3452587	40.59	5.1
459	1	1	0	44.02612404	40.59	5.1
460	1	1	0	46.8664273	40.59	5.1
461	1	1	0	52.54729264	40.59	5.1
462	1	1	0	55.3875959	40.59	5.1
463	1	1	0	61.06846124	40.59	5.1
464	1	1	0	63.9087645	40.59	5.1
465	1	1	0	69.58962985	40.59	5.1
466	1	1	0	72.42993311	40.59	5.1
467	1	1	0	78.11079845	40.59	5.1
468	1	1	0	80.95110171	40.59	5.1
469	1	1	0	86.63196705	40.59	5.1
470	1	1	0	89.47227031	40.59	5.1
471	1	1	0	95.15313565	40.59	5.1
472	1	1	0	97.99343891	40.59	5.1
473	1	1	0	103.6743043	40.59	5.1
474	1	1	0	106.5146075	40.59	5.1
475	1	1	0	112.1954729	40.59	5.1
476	1	1	0	115.0357761	40.59	5.1
477	1	1	0	120.7166415	40.59	5.1
478	1	1	0	123.5569447	40.59	5.1
479	1	1	0	129.2378101	40.59	5.1
480	1	1	0	132.0781133	40.59	5.1
481	1	1	0	0	43.05	5.1
482	1	1	0	5.680865339	43.05	5.1
483	1	1	0	8.521168602	43.05	5.1
484	1	1	0	14.20203394	43.05	5.1
485	1	1	0	17.0423372	43.05	5.1
486	1	1	0	22.72320254	43.05	5.1
487	1	1	0	25.5635058	43.05	5.1
488	1	1	0	31.24437114	43.05	5.1
489	1	1	0	34.0846744	43.05	5.1
490	1	1	0	39.76553974	43.05	5.1
491	1	1	0	42.605843	43.05	5.1
492	1	1	0	48.28670834	43.05	5.1
493	1	1	0	51.1270116	43.05	5.1
494	1	1	0	56.80787694	43.05	5.1
495	1	1	0	59.6481802	43.05	5.1
496	1	1	0	65.32904554	43.05	5.1
497	1	1	0	68.16934881	43.05	5.1
498	1	1	0	73.85021415	43.05	5.1
499	1	1	0	76.69051741	43.05	5.1
500	1	1	0	82.37138275	43.05	5.1
501	1	1	0	85.21168601	43.05	5.1
502	1	1	0	90.89255135	43.05	5.1
503	1	1	0	93.73285461	43.05	5.1
504	1	1	0	99.41371995	43.05	5.1
505	1	1	0	102.2540232	43.05	5.1
506	1	1	0	107.9348886	43.05	5.1
507	1	1	0	110.7751918	43.05	5.1
508	1	1	0	116.4560572	43.05	5.1
509	1	1	0	119.2963604	43.05	5.1
510	1	1	0	124.9772258	43.05	5.1
511	1	1	0	127.817529	43.05	5.1
512	1	1	0	133.4983944	43.05	5.1
513	1	1	0	1.420281039	45.51	5.1
514	1	1	0	4.2605843	45.51	5.1
515	1	1	0	9.941449642	45.51	5.1
516	1	1	0	12.7817529	45.51	5.1
517	1	1	0	18.46261824	45.51	5.1
518	1	1	0	21.3029215	45.51	5.1
519	1	1	0	26.98378684	45.51	5.1
520	1	1	0	29.8240901	45.51	5.1
521	1	1	0	35.50495544	45.51	5.1
522	1	1	0	38.3452587	45.51	5.1
523	1	1	0	44.02612404	45.51	5.1
524	1	1	0	46.8664273	45.51	5.1
525	1	1	0	52.54729264	45.51	5.1
526	1	1	0	55.3875959	45.51	5.1
527	1	1	0	61.06846124	45.51	5.1
528	1	1	0	63.9087645	45.51	5.1
529	1	1	0	69.58962985	45.51	5.1
530	1	1	0	72.42993311	45.51	5.1
531	1	1	0	78.11079845	45.51	5.1
532	1	1	0	80.95110171	45.51	5.1
533	1	1	0	86.63196705	45.51	5.1
534	1	1	0	89.47227031	45.51	5.1
535	1	1	0	95.15313565	45.51	5.1
536	1	1	0	97.99343891	45.51	5.1
537	1	1	0	103.6743043	45.51	5.1
538	1	1	0	106.5146075	45.51	5.1
539	1	1	0	112.1954729	45.51	5.1
540	1	1	0	115.0357761	45.51	5.1
541	1	1	0	120.7166415	45.51	5.1
542	1	1	0	123.5569447	45.51	5.1
543	1	1	0	129.2378101	45.51	5.1
544	1	1	0	132.0781133	45.51	5.1
545	1	1	0	0	47.97	5.1
546	1	1	0	5.680865339	47.97	5.1
547	1	1	0	8.521168602	47.97	5.1
548	1	1	0	14.20203394	47.97	5.1
549	1	1	0	17.0423372	47.97	5.1
550	1	1	0	22.72320254	47.97	5.1
551	1	1	0	25.5635058	47.97	5.1
552	1	1	0	31.24437114	47.97	5.1
553	1	1	0	34.0846744	47.97	5.1
554	1	1	0	39.76553974	47.97	5.1
555	1	1	0	42.605843	47.97	5.1
556	1	1	0	48.28670834	47.97	5.1
557	1	1	0	51.1270116	47.97	5.1
558	1	1	0	56.80787694	47.97	5.1
559	1	1	0	59.6481802	47.97	5.1
560	1	1	0	65.32904554	47.97	5.1
561	1	1	0	68.16934881	47.97	5.1
562	1	1	0	73.85021415	47.97	5.1
563	1	1	0	76.69051741	47.97	5.1
564	1	1	0	82.37138275	47.97	5.1
565	1	1	0	85.21168601	47.97	5.1
566	1	1	0	90.89255135	47.97	5.1
567	1	1	0	93.73285461	47.97	5.1
568	1	1	0	99.41371995	47.97	5.1
569	1	1	0	102.2540232	47.97	5.1
570	1	1	0	107.9348886	47.97	5.1
571	1	1	0	110.7751918	47.97	5.1
572	1	1	0	116.4560572	47.97	5.1
573	1	1	0	119.2963604	47.97	5.1
574	1	1	0	124.9772258	47.97	5.1
575	1	1	0	127.817529	47.97	5.1
576	1	1	0	133.4983944	47.97	5.1
577	1	1	0	1.420281039	50.43	5.1
578	1	1	0	4.2605843	50.43	5.1
579	1	1	0	9.941449642	50.43	5.1
580	1	1	0	12.7817529	50.43	5.1
581	1	1	0	18.46261824	50.43	5.1
582	1	1	0	21.3029215	50.43	5.1
583	1	1	0	26.98378684	50.43	5.1
584	1	1	0	29.8240901	50.43	5.1
585	1	1	0	35.50495544	50.43	5.1
586	1	1	0	38.3452587	50.43	5.1
587	1	1	0	44.02612404	50.43	5.1
588	1	1	0	46.8664273	50.43	5.1
589	1	1	0	52.54729264	50.43	5.1
590	1	1	0	55.3875959	50.43	5.1
591	1	1	0	61.06846124	50.43	5.1
592	1	1	0	63.9087645	50.43	5.1
593	1	1	0	69.58962985	50.43	5.1
594	1	1	0	72.42993311	50.43	5.1
595	1	1	0	78.11079845	50.43	5.1
596	1	1	0	80.95110171	50.43	5.1
597	1	1	0	86.63196705	50.43	5.1
598	1	1	0	89.47227031	50.43	5.1
599	1	1	0	95.15313565	50.43	5.1
600	1	1	0	97.99343891	50.43	5.1
601	1	1	0	103.6743043	50.43	5.1
602	1	1	0	106.5146075	50.43	5.1
603	1	1	0	112.1954729	50.43	5.1
604	1	1	0	115.0357761	50.43	5.1
605	1	1	0	120.7166415	50.43	5.1
606	1	1	0	123.5569447	50.43	5.1
607	1	1	0	129.2378101	50.43	5.1
608	1	1	0	132.0781133	50.43	5.1
609	1	1	0	0	52.89	5.1
610	1	1	0	5.680865339	52.89	5.1
611	1	1	0	8.521168602	52.89	5.1
612	1	1	0	14.20203394	52.89	5.1
613	1	1	0	17.0423372	52.89	5.1
614	1	1	0	22.72320254	52.89	5.1
615	1	1	0	25.5635058	52.89	5.1
616	1	1	0	31.24437114	52.89	5.1
617	1	1	0	34.0846744	52.89	5.1
618	1	1	0	39.76553974	52.89	5.1
619	1	1	0	42.605843	52.89	5.1
620	1	1	0	48.28670834	52.89	5.1
621	1	1	0	51.1270116	52.89	5.1
622	1	1	0	56.80787694	52.89	5.1
623	1	1	0	59.6481802	52.89	5.1
624	1	1	0	65.32904554	52.89	5.1
625	1	1	0	68.16934881	52.89	5.1
626	1	1	0	73.85021415	52.89	5.1
627	1	1	0	76.69051741	52.89	5.1
628	1	1	0	82.37138275	52.89	5.1
629	1	1	0	85.21168601	52.89	5.1
630	1	1	0	90.89255135	52.89	5.1
631	1	1	0	93.73285461	52.89	5.1
632	1	1	0	99.41371995	52.89	5.1
633	1	1	0	102.2540232	52.89	5.1
634	1	1	0	107.9348886	52.89	5.1
635	1	1	0	110.7751918	52.89	5.1
636	1	1	0	116.4560572	52.89	5.1
637	1	1	0	119.2963604	52.89	5.1
638	1	1	0	124.9772258	52.89	5.1
639	1	1	0	127.817529	52.89	5.1
640	1	1	0	133.4983944	52.89	5.1
641	1	1	0	1.420281039	55.35	5.1
642	1	1	0	4.2605843	55.35	5.1
643	1	1	0	9.941449642	55.35	5.1
644	1	1	0	12.7817529	55.35	5.1
645	1	1	0	18.46261824	55.35	5.1
646	1	1	0	21.3029215	55.35	5.1
647	1	1	0	26.98378684	55.35	5.1
648	1	1	0	29.8240901	55.35	5.1
649	1	1	0	35.50495544	55.35	5.1
650	1	1	0	38.3452587	55.35	5.1
651	1	1	0	44.02612404	55.35	5.1
652	1	1	0	46.8664273	55.35	5.1
653	1	1	0	52.54729264	55.35	5.1
654	1	1	0	55.3875959	55.35	5.1
655	1	1	0	61.06846124	55.35	5.1
656	1	1	0	63.9087645	55.35	5.1
657	1	1	0	69.58962985	55.35	5.1
658	1	1	0	72.42993311	55.35	5.1
659	1	1	0	78.11079845	55.35	5.1
660	1	1	0	80.95110171	55.35	5.1
661	1	1	0	86.63196705	55.35	5.1
662	1	1	0	89.47227031	55.35	5.1
663	1	1	0	95.15313565	55.35	5.1
664	1	1	0	97.99343891	55.35	5.1
665	1	1	0	103.6743043	55.35	5.1
666	1	1	0	106.5146075	55.35	5.1
667	1	1	0	112.1954729	55.35	5.1
668	1	1	0	115.0357761	55.35	5.1
669	1	1	0	120.7166415	55.35	5.1
670	1	1	0	123.5569447	55.35	5.1
671	1	1	0	129.2378101	55.35	5.1
672	1	1	0	132.0781133	55.35	5.1
673	1	1	0	0	57.81	5.1
674	1	1	0	5.680865339	57.81	5.1
675	1	1	0	8.521168602	57.81	5.1
676	1	1	0	14.20203394	57.81	5.1
677	1	1	0	17.0423372	57.81	5.1
678	1	1	0	22.72320254	57.81	5.1
679	1	1	0	25.5635058	57.81	5.1
680	1	1	0	31.24437114	57.81	5.1
681	1	1	0	34.0846744	57.81	5.1
682	1	1	0	39.76553974	57.81	5.1
683	1	1	0	42.605843	57.81	5.1
684	1	1	0	48.28670834	57.81	5.1
685	1	1	0	51.1270116	57.81	5.1
686	1	1	0	56.80787694	57.81	5.1
687	1	1	0	59.6481802	57.81	5.1
688	1	1	0	65.32904554	57.81	5.1
689	1	1	0	68.16934881	57.81	5.1
690	1	1	0	73.85021415	57.81	5.1
691	1	1	0	76.69051741	57.81	5.1
692	1	1	0	82.37138275	57.81	5.1
693	1	1	0	85.21168601	57.81	5.1
694	1	1	0	90.89255135	57.81	5.1
695	1	1	0	93.73285461	57.81	5.1
696	1	1	0	99.41371995	57.81	5.1
697	1	1	0	102.2540232	57.81	5.1
698	1	1	0	107.9348886	57.81	5.1
699	1	1	0	110.7751918	57.81	5.1
700	1	1	0	116.4560572	57.81	5.1
701	1	1	0	119.2963604	57.81	5.1
702	1	1	0	124.9772258	57.81	5.1
703	1	1	0	127.817529	57.81	5.1
704	1	1	0	133.4983944	57.81	5.1
705	1	1	0	1.420281039	60.27	5.1
706	1	1	0	4.2605843	60.27	5.1
707	1	1	0	9.941449642	60.27	5.1
708	1	1	0	12.7817529	60.27	5.1
709	1	1	0	18.46261824	60.27	5.1
710	1	1	0	21.3029215	60.27	5.1
711	1	1	0	26.98378684	60.27	5.1
712	1	1	0	29.8240901	60.27	5.1
713	1	1	0	35.50495544	60.27	5.1
714	1	1	0	38.3452587	60.27	5.1
715	1	1	0	44.02612404	60.27	5.1
716	1	1	0	46.8664273	60.27	5.1
717	1	1	0	52.54729264	60.27	5.1
718	1	1	0	55.3875959	60.27	5.1
719	1	1	0	61.06846124	60.27	5.1
720	1	1	0	63.9087645	60.27	5.1
721	1	1	0	69.58962985	60.27	5.1
722	1	1	0	72.42993311	60.27	5.1
723	1	1	0	78.11079845	60.27	5.1
724	1	1	0	80.95110171	60.27	5.1
725	1	1	0	86.63196705	60.27	5.1
726	1	1	0	89.47227031	60.27	5.1
727	1	1	0	95.15313565	60.27	5.1
728	1	1	0	97.99343891	60.27	5.1
729	1	1	0	103.6743043	60.27	5.1
730	1	1	0	106.5146075	60.27	5.1
731	1	1	0	112.1954729	60.27	5.1
732	1	1	0	115.0357761	60.27	5.1
733	1	1	0	120.7166415	60.27	5.1
734	1	1	0	123.5569447	60.27	5.1
735	1	1	0	129.2378101	60.27	5.1
736	1	1	0	132.0781133	60.27	5.1
737	1	1	0	0	62.73	5.1
738	1	1	0	5.680865339	62.73	5.1
739	1	1	0	8.521168602	62.73	5.1
740	1	1	0	14.20203394	62.73	5.1
741	1	1	0	17.0423372	62.73	5.1
742	1	1	0	22.72320254	62.73	5.1
743	1	1	0	25.5635058	62.73	5.1
744	1	1	0	31.24437114	62.73	5.1
745	1	1	0	34.0846744	62.73	5.1
746	1	1	0	39.76553974	62.73	5.1
747	1	1	0	42.605843	62.73	5.1
748	1	1	0	48.28670834	62.73	5.1
749	1	1	0	51.1270116	62.73	5.1
750	1	1	0	56.80787694	62.73	5.1
751	1	1	0	59.6481802	62.73	5.1
752	1	1	0	65.32904554	62.73	5.1
753	1	1	0	68.16934881	62.73	5.1
754	1	1	0	73.85021415	62.73	5.1
755	1	1	0	76.69051741	62.73	5.1
756	1	1	0	82.37138275	62.73	5.1
757	1	1	0	85.21168601	62.73	5.1
758	1	1	0	90.89255135	62.73	5.1
759	1	1	0	93.73285461	62.73	5.1
760	1	1	0	99.41371995	62.73	5.1
761	1	1	0	102.2540232	62.73	5.1
762	1	1	0	107.9348886	62.73	5.1
763	1	1	0	110.7751918	62.73	5.1
764	1	1	0	116.4560572	62.73	5.1
765	1	1	0	119.2963604	62.73	5.1
766	1	1	0	124.9772258	62.73	5.1
767	1	1	0	127.817529	62.73	5.1
768	1	1	0	133.4983944	62.73	5.1
769	1	1	0	1.420281039	65.19	5.1
770	1	1	0	4.2605843	65.19	5.1
771	1	1	0	9.941449642	65.19	5.1
772	1	1	0	12.7817529	65.19	5.1
773	1	1	0	18.46261824	65.19	5.1
774	1	1	0	21.3029215	65.19	5.1
775	1	1	0	26.98378684	65.19	5.1
776	1	1	0	29.8240901	65.19	5.1
777	1	1	0	35.50495544	65.19	5.1
778	1	1	0	38.3452587	65.19	5.1
779	1	1	0	44.02612404	65.19	5.1
780	1	1	0	46.8664273	65.19	5.1
781	1	1	0	52.54729264	65.19	5.1
782	1	1	0	55.3875959	65.19	5.1
783	1	1	0	61.06846124	65.19	5.1
784	1	1	0	63.9087645	65.19	5.1
785	1	1	0	69.58962985	65.19	5.1
786	1	1	0	72.42993311	65.19	5.1
787	1	1	0	78.11079845	65.19	5.1
788	1	1	0	80.95110171	65.19	5.1
789	1	1	0	86.63196705	65.19	5.1
790	1	1	0	89.47227031	65.19	5.1
791	1	1	0	95.15313565	65.19	5.1
792	1	1	0	97.99343891	65.19	5.1
793	1	1	0	103.6743043	65.19	5.1
794	1	1	0	106.5146075	65.19	5.1
795	1	1	0	112.1954729	65.19	5.1
796	1	1	0	115.0357761	65.19	5.1
797	1	1	0	120.7166415	65.19	5.1
798	1	1	0	123.5569447	65.19	5.1
799	1	1	0	129.2378101	65.19	5.1
800	1	1	0	132.0781133	65.19	5.1
801	1	1	0	0	67.65	5.1
802	1	1	0	5.680865339	67.65	5.1
803	1	1	0	8.521168602	67.65	5.1
804	1	1	0	14.20203394	67.65	5.1
805	1	1	0	17.0423372	67.65	5.1
806	1	1	0	22.72320254	67.65	5.1
807	1	1	0	25.5635058	67.65	5.1
808	1	1	0	31.24437114	67.65	5.1
809	1	1	0	34.0846744	67.65	5.1
810	1	1	0	39.76553974	67.65	5.1
811	1	1	0	42.605843	67.65	5.1
812	1	1	0	48.28670834	67.65	5.1
813	1	1	0	51.1270116	67.65	5.1
814	1	1	0	56.80787694	67.65	5.1
815	1	1	0	59.6481802	67.65	5.1
816	1	1	0	65.32904554	67.65	5.1
817	1	1	0	68.16934881	67.65	5.1
818	1	1	0	73.85021415	67.65	5.1
819	1	1	0	76.69051741	67.65	5.1
820	1	1	0	82.37138275	67.65	5.1
821	1	1	0	85.21168601	67.65	5.1
822	1	1	0	90.89255135	67.65	5.1
823	1	1	0	93.73285461	67.65	5.1
824	1	1	0	99.41371995	67.65	5.1
825	1	1	0	102.2540232	67.65	5.1
826	1	1	0	107.9348886	67.65	5.1
827	1	1	0	110.7751918	67.65	5.1
828	1	1	0	116.4560572	67.65	5.1
829	1	1	0	119.2963604	67.65	5.1
830	1	1	0	124.9772258	67.65	5.1
831	1	1	0	127.817529	67.65	5.1
832	1	1	0	133.4983944	67.65	5.1
833	1	1	0	1.420281039	70.11	5.1
834	1	1	0	4.2605843	70.11	5.1
835	1	1	0	9.941449642	70.11	5.1
836	1	1	0	12.7817529	70.11	5.1
837	1	1	0	18.46261824	70.11	5.1
838	1	1	0	21.3029215	70.11	5.1
839	1	1	0	26.98378684	70.11	5.1
840	1	1	0	29.8240901	70.11	5.1
841	1	1	0	35.50495544	70.11	5.1
842	1	1	0	38.3452587	70.11	5.1
843	1	1	0	44.02612404	70.11	5.1
844	1	1	0	46.8664273	70.11	5.1
845	1	1	0	52.54729264	70.11	5.1
846	1	1	0	55.3875959	70.11	5.1
847	1	1	0	61.06846124	70.11	5.1
848	1	1	0	63.9087645	70.11	5.1
849	1	1	0	69.58962985	70.11	5.1
850	1	1	0	72.42993311	70.11	5.1
851	1	1	0	78.11079845	70.11	5.1
852	1	1	0	80.95110171	70.11	5.1
853	1	1	0	86.63196705	70.11	5.1
854	1	1	0	89.47227031	70.11	5.1
855	1	1	0	95.15313565	70.11	5.1
856	1	1	0	97.99343891	70.11	5.1
857	1	1	0	103.6743043	70.11	5.1
858	1	1	0	106.5146075	70.11	5.1
859	1	1	0	112.1954729	70.11	5.1
860	1	1	0	115.0357761	70.11	5.1
861	1	1	0	120.7166415	70.11	5.1
862	1	1	0	123.5569447	70.11	5.1
863	1	1	0	129.2378101	70.11	5.1
864	1	1	0	132.0781133	70.11	5.1
865	1	1	0	0	72.57	5.1
866	1	1	0	5.680865339	72.57	5.1
867	1	1	0	8.521168602	72.57	5.1
868	1	1	0	14.20203394	72.57	5.1
869	1	1	0	17.0423372	72.57	5.1
870	1	1	0	22.72320254	72.57	5.1
871	1	1	0	25.5635058	72.57	5.1
872	1	1	0	31.24437114	72.57	5.1
873	1	1	0	34.0846744	72.57	5.1
874	1	1	0	39.76553974	72.57	5.1
875	1	1	0	42.605843	72.57	5.1
876	1	1	0	48.28670834	72.57	5.1
877	1	1	0	51.1270116	72.57	5.1
878	1	1	0	56.80787694	72.57	5.1
879	1	1	0	59.6481802	72.57	5.1
880	1	1	0	65.32904554	72.57	5.1
881	1	1	0	68.16934881	72.57	5.1
882	1	1	0	73.85021415	72.57	5.1
883	1	1	0	76.69051741	72.57	5.1
884	1	1	0	82.37138275	72.57	5.1
885	1	1	0	85.21168601	72.57	5.1
886	1	1	0	90.89255135	72.57	5.1
887	1	1	0	93.73285461	72.57	5.1
888	1	1	0	99.41371995	72.57	5.1
889	1	1	0	102.2540232	72.57	5.1
890	1	1	0	107.9348886	72.57	5.1
891	1	1	0	110.7751918	72.57	5.1
892	1	1	0	116.4560572	72.57	5.1
893	1	1	0	119.2963604	72.57	5.1
894	1	1	0	124.9772258	72.57	5.1
895	1	1	0	127.817529	72.57	5.1
896	1	1	0	133.4983944	72.57	5.1
897	1	1	0	1.420281039	75.03	5.1
898	1	1	0	4.2605843	75.03	5.1
899	1	1	0	9.941449642	75.03	5.1
900	1	1	0	12.7817529	75.03	5.1
901	1	1	0	18.46261824	75.03	5.1
902	1	1	0	21.3029215	75.03	5.1
903	1	1	0	26.98378684	75.03	5.1
904	1	1	0	29.8240901	75.03	5.1
905	1	1	0	35.50495544	75.03	5.1
906	1	1	0	38.3452587	75.03	5.1
907	1	1	0	44.02612404	75.03	5.1
908	1	1	0	46.8664273	75.03	5.1
909	1	1	0	52.54729264	75.03	5.1
910	1	1	0	55.3875959	75.03	5.1
911	1	1	0	61.06846124	75.03	5.1
912	1	1	0	63.9087645	75.03	5.1
913	1	1	0	69.58962985	75.03	5.1
914	1	1	0	72.42993311	75.03	5.1
915	1	1	0	78.11079845	75.03	5.1
916	1	1	0	80.95110171	75.03	5.1
917	1	1	0	86.63196705	75.03	5.1
918	1	1	0	89.47227031	75.03	5.1
919	1	1	0	95.15313565	75.03	5.1
920	1	1	0	97.99343891	75.03	5.1
921	1	1	0	103.6743043	75.03	5.1
922	1	1	0	106.5146075	75.03	5.1
923	1	1	0	112.1954729	75.03	5.1
924	1	1	0	115.0357761	75.03	5.1
925	1	1	0	120.7166415	75.03	5.1
926	1	1	0	123.5569447	75.03	5.1
927	1	1	0	129.2378101	75.03	5.1
928	1	1	0	132.0781133	75.03	5.1
929	1	1	0	0	77.49	5.1
930	1	1	0	5.680865339	77.49	5.1
931	1	1	0	8.521168602	77.49	5.1
932	1	1	0	14.20203394	77.49	5.1
933	1	1	0	17.0423372	77.49	5.1
934	1	1	0	22.72320254	77.49	5.1
935	1	1	0	25.5635058	77.49	5.1
936	1	1	0	31.24437114	77.49	5.1
937	1	1	0	34.0846744	77.49	5.1
938	1	1	0	39.76553974	77.49	5.1
939	1	1	0	42.605843	77.49	5.1
940	1	1	0	48.28670834	77.49	5.1
941	1	1	0	51.1270116	77.49	5.1
942	1	1	0	56.80787694	77.49	5.1
943	1	1	0	59.6481802	77.49	5.1
944	1	1	0	65.32904554	77.49	5.1
945	1	1	0	68.16934881	77.49	5.1
946	1	1	0	73.85021415	77.49	5.1
947	1	1	0	76.69051741	77.49	5.1
948	1	1	0	82.37138275	77.49	5.1
949	1	1	0	85.21168601	77.49	5.1